 argument  1 = input.nw



============================== echo of input deck ==============================
title "WATER 6-311G* meta-GGA XC geometry"
echo
geometry units angstroms
 O       0.00000000     0.00000000    -0.06392934
 H       0.76924532     0.00000000     0.52693942
 H       -0.76924532     0.00000000     0.52693942
end
basis
 H library 6-311G*
 O library 6-311G*
end
dft
 iterations 50
 print  kinetic_energy
 xc hcth147
 decomp
end
task dft energy
================================================================================


                                         
                                         


              Northwest Computational Chemistry Package (NWChem) 6.6
              ------------------------------------------------------


                    Environmental Molecular Sciences Laboratory
                       Pacific Northwest National Laboratory
                                Richland, WA 99352

                              Copyright (c) 1994-2015
                       Pacific Northwest National Laboratory
                            Battelle Memorial Institute

             NWChem is an open-source computational chemistry package
                        distributed under the terms of the
                      Educational Community License (ECL) 2.0
             A copy of the license is included with this distribution
                              in the LICENSE.TXT file

                                  ACKNOWLEDGMENT
                                  --------------

            This software and its documentation were developed at the
            EMSL at Pacific Northwest National Laboratory, a multiprogram
            national laboratory, operated for the U.S. Department of Energy
            by Battelle under Contract Number DE-AC05-76RL01830. Support
            for this work was provided by the Department of Energy Office
            of Biological and Environmental Research, Office of Basic
            Energy Sciences, and the Office of Advanced Scientific Computing.


           Job information
           ---------------

    hostname        = lenovo700
    program         = nwchem
    date            = Mon Sep 12 16:22:33 2016

    compiled        = Mon_Feb_15_08:24:17_2016
    source          = /build/nwchem-MF0R1k/nwchem-6.6+r27746
    nwchem branch   = 6.6
    nwchem revision = 27746
    ga revision     = 10594
    input           = input.nw
    prefix          = input.
    data base       = ./input.db
    status          = startup
    nproc           =        1
    time left       =     -1s



           Memory information
           ------------------

    heap     =   13107196 doubles =    100.0 Mbytes
    stack    =   13107201 doubles =    100.0 Mbytes
    global   =   26214400 doubles =    200.0 Mbytes (distinct from heap & stack)
    total    =   52428797 doubles =    400.0 Mbytes
    verify   = yes
    hardfail = no 


           Directory information
           ---------------------

  0 permanent = .
  0 scratch   = .




                                NWChem Input Module
                                -------------------


                        WATER 6-311G* meta-GGA XC geometry
                        ----------------------------------

 Scaling coordinates for geometry "geometry" by  1.889725989
 (inverse scale =  0.529177249)

 C2V symmetry detected

          ------
          auto-z
          ------


                             Geometry "geometry" -> ""
                             -------------------------

 Output coordinates in angstroms (scale by  1.889725989 to convert to a.u.)

  No.       Tag          Charge          X              Y              Z
 ---- ---------------- ---------- -------------- -------------- --------------
    1 O                    8.0000     0.00000000     0.00000000    -0.11817375
    2 H                    1.0000     0.76924532     0.00000000     0.47269501
    3 H                    1.0000    -0.76924532     0.00000000     0.47269501

      Atomic Mass 
      ----------- 

      O                 15.994910
      H                  1.007825


 Effective nuclear repulsion energy (a.u.)       9.0728214087

            Nuclear Dipole moment (a.u.) 
            ----------------------------
        X                 Y               Z
 ---------------- ---------------- ----------------
     0.0000000000     0.0000000000     0.0000000000

      Symmetry information
      --------------------

 Group name             C2v       
 Group number             16
 Group order               4
 No. of unique centers     2

      Symmetry unique atoms

     1    2



                                Z-matrix (autoz)
                                -------- 

 Units are Angstrom for bonds and degrees for angles

      Type          Name      I     J     K     L     M      Value
      ----------- --------  ----- ----- ----- ----- ----- ----------
    1 Stretch                  1     2                       0.96998
    2 Stretch                  1     3                       0.96998
    3 Bend                     2     1     3               104.94320


            XYZ format geometry
            -------------------
     3
 geometry
 O                     0.00000000     0.00000000    -0.11817375
 H                     0.76924532     0.00000000     0.47269501
 H                    -0.76924532     0.00000000     0.47269501

 ==============================================================================
                                internuclear distances
 ------------------------------------------------------------------------------
       center one      |      center two      | atomic units |  angstroms
 ------------------------------------------------------------------------------
    2 H                |   1 O                |     1.83300  |     0.96998
    3 H                |   1 O                |     1.83300  |     0.96998
 ------------------------------------------------------------------------------
                         number of included internuclear distances:          2
 ==============================================================================



 ==============================================================================
                                 internuclear angles
 ------------------------------------------------------------------------------
        center 1       |       center 2       |       center 3       |  degrees
 ------------------------------------------------------------------------------
    2 H                |   1 O                |   3 H                |   104.94
 ------------------------------------------------------------------------------
                            number of included internuclear angles:          1
 ==============================================================================



  library name resolved from: .nwchemrc
  library file name is: </home/lauri/nwchem-6.6/src/basis/libraries/>
  
                      Basis "ao basis" -> "" (cartesian)
                      -----
  H (Hydrogen)
  ------------
            Exponent  Coefficients 
       -------------- ---------------------------------------------------------
  1 S  3.38650000E+01  0.025494
  1 S  5.09479000E+00  0.190373
  1 S  1.15879000E+00  0.852161

  2 S  3.25840000E-01  1.000000

  3 S  1.02741000E-01  1.000000

  O (Oxygen)
  ----------
            Exponent  Coefficients 
       -------------- ---------------------------------------------------------
  1 S  8.58850000E+03  0.001895
  1 S  1.29723000E+03  0.014386
  1 S  2.99296000E+02  0.070732
  1 S  8.73771000E+01  0.240001
  1 S  2.56789000E+01  0.594797
  1 S  3.74004000E+00  0.280802

  2 S  4.21175000E+01  0.113889
  2 S  9.62837000E+00  0.920811
  2 S  2.85332000E+00 -0.003274

  3 P  4.21175000E+01  0.036511
  3 P  9.62837000E+00  0.237153
  3 P  2.85332000E+00  0.819702

  4 S  9.05661000E-01  1.000000

  5 P  9.05661000E-01  1.000000

  6 S  2.55611000E-01  1.000000

  7 P  2.55611000E-01  1.000000

  8 D  1.29200000E+00  1.000000



 Summary of "ao basis" -> "" (cartesian)
 ------------------------------------------------------------------------------
       Tag                 Description            Shells   Functions and Types
 ---------------- ------------------------------  ------  ---------------------
 H                          6-311G*                  3        3   3s
 O                          6-311G*                  8       19   4s3p1d



                                 NWChem DFT Module
                                 -----------------


                        WATER 6-311G* meta-GGA XC geometry




 Summary of "ao basis" -> "ao basis" (cartesian)
 ------------------------------------------------------------------------------
       Tag                 Description            Shells   Functions and Types
 ---------------- ------------------------------  ------  ---------------------
 H                          6-311G*                  3        3   3s
 O                          6-311G*                  8       19   4s3p1d


      Symmetry analysis of basis
      --------------------------

        a1         13
        a2          1
        b1          7
        b2          4

  Caching 1-el integrals 

            General Information
            -------------------
          SCF calculation type: DFT
          Wavefunction type:  closed shell.
          No. of atoms     :     3
          No. of electrons :    10
           Alpha electrons :     5
            Beta electrons :     5
          Charge           :     0
          Spin multiplicity:     1
          Use of symmetry is: on ; symmetry adaption is: on 
          Maximum number of iterations:  50
          AO basis - number of functions:    25
                     number of shells:    14
          Convergence on energy requested: 1.00D-06
          Convergence on density requested: 1.00D-05
          Convergence on gradient requested: 5.00D-04

              XC Information
              --------------
                     HCTH147  Method XC Functional
                      HCTH147  Exchange Functional  1.000          
                   HCTH147  Correlation Functional  1.000          

             Grid Information
             ----------------
          Grid used for XC integration:  medium    
          Radial quadrature: Mura-Knowles        
          Angular quadrature: Lebedev. 
          Tag              B.-S. Rad. Rad. Pts. Rad. Cut. Ang. Pts.
          ---              ---------- --------- --------- ---------
          O                   0.60       49           5.0       434
          H                   0.35       45           7.0       434
          Grid pruning is: on 
          Number of quadrature shells:    94
          Spatial weights used:  Erf1

          Convergence Information
          -----------------------
          Convergence aids based upon iterative change in 
          total energy or number of iterations. 
          Levelshifting, if invoked, occurs when the 
          HOMO/LUMO gap drops below (HL_TOL): 1.00D-02
          DIIS, if invoked, will attempt to extrapolate 
          using up to (NFOCK): 10 stored Fock matrices.

                    Damping( 0%)  Levelshifting(0.5)       DIIS
                  --------------- ------------------- ---------------
          dE  on:    start            ASAP                start   
          dE off:    2 iters         50 iters            50 iters 


      Screening Tolerance Information
      -------------------------------
          Density screening/tol_rho: 1.00D-10
          AO Gaussian exp screening on grid/accAOfunc:  14
          CD Gaussian exp screening on grid/accCDfunc:  20
          XC Gaussian exp screening on grid/accXCfunc:  20
          Schwarz screening/accCoul: 1.00D-08


      Superposition of Atomic Density Guess
      -------------------------------------

 Sum of atomic energies:         -75.77574266

      Non-variational initial energy
      ------------------------------

 Total energy =     -75.913869
 1-e energy   =    -121.577764
 2-e energy   =      36.591074
 HOMO         =      -0.469512
 LUMO         =       0.068941


      Symmetry analysis of molecular orbitals - initial
      -------------------------------------------------

  Numbering of irreducible representations: 

     1 a1          2 a2          3 b1          4 b2      

  Orbital symmetries:

     1 a1          2 a1          3 b1          4 a1          5 b2      
     6 a1          7 b1          8 b1          9 a1         10 b2      
    11 a1         12 b1         13 a1         14 b1         15 a1      

   Time after variat. SCF:      0.1
   Time prior to 1st pass:      0.1

           Kinetic energy =     76.830992466928


 #quartets = 3.606D+03 #integrals = 1.635D+04 #direct =  0.0% #cached =100.0%


 Integral file          = ./input.aoints.0
 Record size in doubles =  65536        No. of integs per rec  =  43688
 Max. records in memory =      2        Max. records in file   = 185944
 No. of bits per label  =      8        No. of bits per value  =     64


 Grid_pts file          = ./input.gridpts.0
 Record size in doubles =  12289        No. of grid_pts per rec  =   3070
 Max. records in memory =     16        Max. recs in file   =    991628


           Memory utilization after 1st SCF pass: 
           Heap Space remaining (MW):       12.78            12777692
          Stack Space remaining (MW):       13.11            13106924

   convergence    iter        energy       DeltaE   RMS-Dens  Diis-err    time
 ---------------- ----- ----------------- --------- --------- ---------  ------
 d= 0,ls=0.0,diis     1    -76.3765008137 -8.54D+01  2.89D-02  4.90D-01     0.2

           Kinetic energy =     74.612083736414

 d= 0,ls=0.0,diis     2    -76.3506747793  2.58D-02  1.77D-02  7.61D-01     0.2

           Kinetic energy =     76.596999902099

 d= 0,ls=0.0,diis     3    -76.4153728550 -6.47D-02  2.76D-03  4.17D-02     0.2

           Kinetic energy =     76.177607656210

 d= 0,ls=0.0,diis     4    -76.4185375996 -3.16D-03  3.27D-04  3.12D-04     0.3

           Kinetic energy =     76.179862808714

 d= 0,ls=0.0,diis     5    -76.4185627824 -2.52D-05  3.36D-05  2.16D-06     0.3

           Kinetic energy =     76.177625334461

 d= 0,ls=0.0,diis     6    -76.4185630234 -2.41D-07  2.47D-06  3.23D-08     0.3


         Total DFT energy =      -76.418563023382
      One electron energy =     -122.991312851535
           Coulomb energy =       46.840610112510
          Exchange energy =       -8.824031380911
       Correlation energy =       -0.516650312151
 Nuclear repulsion energy =        9.072821408703

 Numeric. integr. density =       10.000000943949

     Total iterative time =      0.3s



                  Occupations of the irreducible representations
                  ----------------------------------------------

                     irrep           alpha         beta
                     --------     --------     --------
                     a1                3.0          3.0
                     a2                0.0          0.0
                     b1                1.0          1.0
                     b2                1.0          1.0


                       DFT Final Molecular Orbital Analysis
                       ------------------------------------

 Vector    1  Occ=2.000000D+00  E=-1.872653D+01  Symmetry=a1
              MO Center= -5.5D-18, -1.3D-19, -1.2D-01, r^2= 1.5D-02
   Bfn.  Coefficient  Atom+Function         Bfn.  Coefficient  Atom+Function  
  ----- ------------  ---------------      ----- ------------  ---------------
     1      0.551240  1 O  s                  2      0.466919  1 O  s          

 Vector    2  Occ=2.000000D+00  E=-9.258121D-01  Symmetry=a1
              MO Center=  1.0D-16,  4.7D-18,  9.8D-02, r^2= 5.0D-01
   Bfn.  Coefficient  Atom+Function         Bfn.  Coefficient  Atom+Function  
  ----- ------------  ---------------      ----- ------------  ---------------
     6      0.535599  1 O  s                 10      0.415984  1 O  s          
     2     -0.184537  1 O  s          

 Vector    3  Occ=2.000000D+00  E=-4.785901D-01  Symmetry=b1
              MO Center= -1.5D-16,  2.7D-19,  1.1D-01, r^2= 8.0D-01
   Bfn.  Coefficient  Atom+Function         Bfn.  Coefficient  Atom+Function  
  ----- ------------  ---------------      ----- ------------  ---------------
     7      0.364206  1 O  px                 3      0.233657  1 O  px         
    11      0.224954  1 O  px                21      0.177604  2 H  s          
    24     -0.177604  3 H  s                 20      0.160401  2 H  s          
    23     -0.160401  3 H  s          

 Vector    4  Occ=2.000000D+00  E=-3.214276D-01  Symmetry=a1
              MO Center=  1.3D-16,  9.6D-18, -2.2D-01, r^2= 6.9D-01
   Bfn.  Coefficient  Atom+Function         Bfn.  Coefficient  Atom+Function  
  ----- ------------  ---------------      ----- ------------  ---------------
     9      0.367601  1 O  pz                13      0.366004  1 O  pz         
    10     -0.334567  1 O  s                  5      0.257936  1 O  pz         
     6     -0.239101  1 O  s          

 Vector    5  Occ=2.000000D+00  E=-2.422625D-01  Symmetry=b2
              MO Center= -2.2D-18, -6.4D-21, -1.1D-01, r^2= 6.1D-01
   Bfn.  Coefficient  Atom+Function         Bfn.  Coefficient  Atom+Function  
  ----- ------------  ---------------      ----- ------------  ---------------
    12      0.493581  1 O  py                 8      0.428217  1 O  py         
     4      0.301978  1 O  py         

 Vector    6  Occ=0.000000D+00  E= 3.436632D-03  Symmetry=a1
              MO Center=  2.7D-15,  1.5D-17,  6.2D-01, r^2= 3.0D+00
   Bfn.  Coefficient  Atom+Function         Bfn.  Coefficient  Atom+Function  
  ----- ------------  ---------------      ----- ------------  ---------------
    10      0.891618  1 O  s                 22     -0.724337  2 H  s          
    25     -0.724337  3 H  s                 13      0.289562  1 O  pz         
     6      0.197340  1 O  s                  9      0.186083  1 O  pz         

 Vector    7  Occ=0.000000D+00  E= 7.955693D-02  Symmetry=b1
              MO Center= -2.0D-15,  6.0D-33,  5.7D-01, r^2= 3.6D+00
   Bfn.  Coefficient  Atom+Function         Bfn.  Coefficient  Atom+Function  
  ----- ------------  ---------------      ----- ------------  ---------------
    22      1.295058  2 H  s                 25     -1.295058  3 H  s          
    11     -0.574170  1 O  px                 7     -0.247960  1 O  px         
     3     -0.176693  1 O  px         

 Vector    8  Occ=0.000000D+00  E= 3.372043D-01  Symmetry=b1
              MO Center= -1.7D-16,  0.0D+00,  1.3D-01, r^2= 2.6D+00
   Bfn.  Coefficient  Atom+Function         Bfn.  Coefficient  Atom+Function  
  ----- ------------  ---------------      ----- ------------  ---------------
    21      1.307431  2 H  s                 24     -1.307431  3 H  s          
    22     -1.066888  2 H  s                 25      1.066888  3 H  s          
    11     -0.820904  1 O  px                 7     -0.200403  1 O  px         

 Vector    9  Occ=0.000000D+00  E= 3.721965D-01  Symmetry=a1
              MO Center= -1.4D-17,  4.4D-21,  5.3D-01, r^2= 2.3D+00
   Bfn.  Coefficient  Atom+Function         Bfn.  Coefficient  Atom+Function  
  ----- ------------  ---------------      ----- ------------  ---------------
    21      1.524763  2 H  s                 24      1.524763  3 H  s          
    10     -0.850627  1 O  s                 13     -0.756901  1 O  pz         
    22     -0.734671  2 H  s                 25     -0.734671  3 H  s          
     9     -0.216419  1 O  pz                 6     -0.157224  1 O  s          

 Vector   10  Occ=0.000000D+00  E= 7.210369D-01  Symmetry=b2
              MO Center= -5.9D-18, -6.4D-21, -1.2D-01, r^2= 1.3D+00
   Bfn.  Coefficient  Atom+Function         Bfn.  Coefficient  Atom+Function  
  ----- ------------  ---------------      ----- ------------  ---------------
    12      1.123240  1 O  py                 8     -0.805933  1 O  py         
     4     -0.270715  1 O  py         

 Vector   11  Occ=0.000000D+00  E= 7.355918D-01  Symmetry=a1
              MO Center= -8.9D-16, -8.7D-18, -4.5D-01, r^2= 1.3D+00
   Bfn.  Coefficient  Atom+Function         Bfn.  Coefficient  Atom+Function  
  ----- ------------  ---------------      ----- ------------  ---------------
    13      1.414431  1 O  pz                 9     -0.780867  1 O  pz         
    21     -0.413100  2 H  s                 24     -0.413100  3 H  s          
    10      0.288335  1 O  s                  5     -0.244300  1 O  pz         
     6      0.206436  1 O  s          

 Vector   12  Occ=0.000000D+00  E= 8.464286D-01  Symmetry=b1
              MO Center=  2.1D-15, -2.5D-18, -1.5D-01, r^2= 1.8D+00
   Bfn.  Coefficient  Atom+Function         Bfn.  Coefficient  Atom+Function  
  ----- ------------  ---------------      ----- ------------  ---------------
    11      1.781243  1 O  px                 7     -0.835991  1 O  px         
    22     -0.751321  2 H  s                 25      0.751321  3 H  s          
    21     -0.308589  2 H  s                 24      0.308589  3 H  s          
     3     -0.252345  1 O  px         

 Vector   13  Occ=0.000000D+00  E= 1.010379D+00  Symmetry=a1
              MO Center= -1.4D-15,  9.3D-22,  2.1D-01, r^2= 1.5D+00
   Bfn.  Coefficient  Atom+Function         Bfn.  Coefficient  Atom+Function  
  ----- ------------  ---------------      ----- ------------  ---------------
    10      3.095699  1 O  s                  6     -1.435039  1 O  s          
    13      0.871809  1 O  pz                21     -0.733607  2 H  s          
    24     -0.733607  3 H  s                 22     -0.363808  2 H  s          
    25     -0.363808  3 H  s                 14     -0.254929  1 O  dxx        
    19     -0.215675  1 O  dzz               17     -0.178934  1 O  dyy        

 Vector   14  Occ=0.000000D+00  E= 1.938788D+00  Symmetry=b1
              MO Center=  7.6D-17,  6.2D-33,  3.9D-01, r^2= 1.7D+00
   Bfn.  Coefficient  Atom+Function         Bfn.  Coefficient  Atom+Function  
  ----- ------------  ---------------      ----- ------------  ---------------
    21      1.657575  2 H  s                 24     -1.657575  3 H  s          
    20     -0.916788  2 H  s                 23      0.916788  3 H  s          
    22     -0.804551  2 H  s                 25      0.804551  3 H  s          
    16     -0.688594  1 O  dxz               11     -0.422953  1 O  px         

 Vector   15  Occ=0.000000D+00  E= 1.978078D+00  Symmetry=a1
              MO Center=  1.7D-16,  4.6D-22,  4.7D-01, r^2= 1.5D+00
   Bfn.  Coefficient  Atom+Function         Bfn.  Coefficient  Atom+Function  
  ----- ------------  ---------------      ----- ------------  ---------------
    21      1.694863  2 H  s                 24      1.694863  3 H  s          
    20     -0.985398  2 H  s                 23     -0.985398  3 H  s          
    10     -0.618439  1 O  s                 22     -0.525062  2 H  s          
    25     -0.525062  3 H  s                 13     -0.480499  1 O  pz         
    14     -0.321351  1 O  dxx               17      0.193737  1 O  dyy        


 center of mass
 --------------
 x =   0.00000000 y =   0.00000000 z =  -0.09835407

 moments of inertia (a.u.)
 ------------------
           2.231770005306           0.000000000000           0.000000000000
           0.000000000000           6.491112075258           0.000000000000
           0.000000000000           0.000000000000           4.259342069952

     Multipole analysis of the density
     ---------------------------------

     L   x y z        total         alpha         beta         nuclear
     -   - - -        -----         -----         ----         -------
     0   0 0 0     -0.000000     -5.000000     -5.000000     10.000000

     1   1 0 0     -0.000000     -0.000000     -0.000000      0.000000
     1   0 1 0      0.000000      0.000000      0.000000      0.000000
     1   0 0 1      0.882002      0.441001      0.441001      0.000000

     2   2 0 0     -3.143201     -3.684736     -3.684736      4.226271
     2   1 1 0      0.000000      0.000000      0.000000      0.000000
     2   1 0 1      0.000000      0.000000      0.000000      0.000000
     2   0 2 0     -5.438839     -2.719419     -2.719419      0.000000
     2   0 1 1      0.000000      0.000000      0.000000      0.000000
     2   0 0 2     -4.546809     -3.270805     -3.270805      1.994802


 Parallel integral file used       1 records with       0 large values


 Task  times  cpu:        0.3s     wall:        0.3s
 Summary of allocated global arrays
-----------------------------------
  No active global arrays



                         GA Statistics for process    0
                         ------------------------------

       create   destroy   get      put      acc     scatter   gather  read&inc
calls:  188      188     4685     1398     1891        0        0      413     
number of processes/call 1.00e+00 1.00e+00 1.00e+00 0.00e+00 0.00e+00
bytes total:             2.95e+06 9.55e+05 1.54e+06 0.00e+00 0.00e+00 3.30e+03
bytes remote:            0.00e+00 0.00e+00 0.00e+00 0.00e+00 0.00e+00 0.00e+00
Max memory consumed for GA by this process: 195000 bytes
MA_summarize_allocated_blocks: starting scan ...
MA_summarize_allocated_blocks: scan completed: 0 heap blocks, 0 stack blocks
MA usage statistics:

	allocation statistics:
					      heap	     stack
					      ----	     -----
	current number of blocks	         0	         0
	maximum number of blocks	        24	        55
	current total bytes		         0	         0
	maximum total bytes		   2636040	  22510888
	maximum total K-bytes		      2637	     22511
	maximum total M-bytes		         3	        23


                                NWChem Input Module
                                -------------------





                                     CITATION
                                     --------
                Please cite the following reference when publishing
                           results obtained with NWChem:

                 M. Valiev, E.J. Bylaska, N. Govind, K. Kowalski,
              T.P. Straatsma, H.J.J. van Dam, D. Wang, J. Nieplocha,
                        E. Apra, T.L. Windus, W.A. de Jong
                 "NWChem: a comprehensive and scalable open-source
                  solution for large scale molecular simulations"
                      Comput. Phys. Commun. 181, 1477 (2010)
                           doi:10.1016/j.cpc.2010.04.018

                                      AUTHORS
                                      -------
          E. Apra, E. J. Bylaska, W. A. de Jong, N. Govind, K. Kowalski,
       T. P. Straatsma, M. Valiev, H. J. J. van Dam, D. Wang, T. L. Windus,
        J. Hammond, J. Autschbach, K. Bhaskaran-Nair, J. Brabec, K. Lopata,
       S. A. Fischer, S. Krishnamoorthy, W. Ma, M. Klemm, O. Villa, Y. Chen,
    V. Anisimov, F. Aquino, S. Hirata, M. T. Hackler, T. Risthaus, M. Malagoli,
       A. Marenich, A. Otero-de-la-Roza, J. Mullin, P. Nichols, R. Peverati,
     J. Pittner, Y. Zhao, P.-D. Fan, A. Fonari, M. Williamson, R. J. Harrison,
       J. R. Rehr, M. Dupuis, D. Silverstein, D. M. A. Smith, J. Nieplocha,
        V. Tipparaju, M. Krishnan, B. E. Van Kuiken, A. Vazquez-Mayagoitia,
        L. Jensen, M. Swart, Q. Wu, T. Van Voorhis, A. A. Auer, M. Nooijen,
      L. D. Crosby, E. Brown, G. Cisneros, G. I. Fann, H. Fruchtl, J. Garza,
        K. Hirao, R. A. Kendall, J. A. Nichols, K. Tsemekhman, K. Wolinski,
     J. Anchell, D. E. Bernholdt, P. Borowski, T. Clark, D. Clerc, H. Dachsel,
   M. J. O. Deegan, K. Dyall, D. Elwood, E. Glendening, M. Gutowski, A. C. Hess,
         J. Jaffe, B. G. Johnson, J. Ju, R. Kobayashi, R. Kutteh, Z. Lin,
   R. Littlefield, X. Long, B. Meng, T. Nakajima, S. Niu, L. Pollack, M. Rosing,
   K. Glaesemann, G. Sandrone, M. Stave, H. Taylor, G. Thomas, J. H. van Lenthe,
                               A. T. Wong, Z. Zhang.

 Total times  cpu:        0.3s     wall:        0.3s
